VARIABLES="N","h=N^(-1/3)","h^2=N^(-2/3)","CL","CD","CDp","CDv","CMy" "max_MUT"
ZONE t="Wolf-FV+Feflo.a, Drag Adapted"
176106 0.0178406 0.00031828700836 0.239482 0.0165546 0.0163185 0.00023608 -0.164963 0
349911 0.014191 0.000201384481 0.251845 0.015096 0.013515 0.00158103 -0.173812 0
692396 0.0113036 0.00012777137296 0.271394 0.0166551 0.0125508 0.00410429 -0.19191 0
1360686 0.00902431 8.14381709761e-05 0.273085 0.0168702 0.0120698 0.00480038 -0.193806 0
