VARIABLES="N","h=N^(-1/3)","h^2=N^(-2/3)","CL","CD","CDp","CDv","CMy" "max_MUT"
ZONE t="Wolf-FV+Feflo.a, Mach-Lp=2"
131875 0.0196462 0.00038597317444 0.243925 0.0162421 0.0155196 0.000722477 -0.16791 0
258795 0.0156921 0.00024624200241 0.264066 0.0167501 0.0131635 0.00358662 -0.185106 0
516693 0.012462 0.000155301444 0.268865 0.017041 0.0124514 0.00458963 -0.189528 0
1020615 0.00993221 9.86487954841e-05 0.270399 0.0171555 0.0121779 0.00497759 -0.190895 0
2027208 0.00790134 6.24311737956e-05 0.270814 0.0171366 0.012016 0.00512054 -0.191276 0
