VARIABLES="N","h=N^(-1/3)","h^2=N^(-2/3)","CL","CD","CDp","CDv","CMy" "max_MUT"
ZONE t="Wolf-FV, GGNS-EPIC Lift Grids"
0.0148289 	     306671 	  0.0169114 	  0.0120214 	  0.00489 	 0.264416 	 -0.184454 
157796 0.0185055 0.00034245353025000005 0.266591 0.017466 0.0127341 0.00473185 -0.187175 0
306671 0.0148289 0.00021989627521000002 0.264416 0.0169114 0.0120214 0.00489 -0.184454 0
534869 0.0123192 0.00015176268864 0.273303 0.0174034 0.0122956 0.00510771 -0.193437 0
1086975 0.00972583 9.45917691889e-05 0.268052 0.0167989 0.0118358 0.00496309 -0.187722 0
2251247 0.00763002 5.821720520040001e-05 0.264662 0.0162217 0.0114086 0.00481308 -0.18328 0
