VARIABLES = "MESH" "NODES" "NODESsurf" "NODESFF" "Yplus" "Cell-deg" "CL" "CD" "CDv" "CM" "Iter" "Res"

#
#  Alpha=0 degrees
#

ZONE T="al=0, GGNS+EPIC-ICS, Mach-Lp=2"
# 0     1570     661      366   0.0e+00   0   5.35068118004e-03   1.09943311691e-01    7.111830065e-02  -3.03590517777e-02    17  4.561e-11
# 1     2665     318     1821   4.5e+03   0  -3.88769440556e-03   7.44814367477e-02    3.657010069e-02   1.76806980248e-02    11  4.731e-10
# 2    10715     801     6388   3.3e+03   0   6.69341249949e-05   6.70439413932e-02    4.824699022e-02  -3.29936803473e-04    18  3.101e-11
# 3    20740    1176    10246   1.4e+03   0   3.34411759873e-05   5.53221999149e-02    4.252598006e-02  -1.45691250490e-04    12  3.078e-11
# 4    70726    2781    37130   7.2e+02   0   1.60052451965e-05   4.40405318720e-02    3.633708929e-02  -1.44095179096e-04    14  3.646e-11
# 5    70909    3160    40346   3.2e+02   0   3.87374392167e-06   3.71555479646e-02    3.093941441e-02  -9.49756154016e-05    13  6.825e-10
# 6    70868    3764    40171   1.6e+02   0   3.00238580828e-05   3.20017837441e-02    2.622669288e-02  -2.98555373389e-04    13  1.091e-10
# 7    71545    4415    38140   9.3e+01   0   1.57519692017e-05   2.76253430945e-02    2.225761889e-02  -1.83055777204e-04    12  1.884e-10
# 8    72940    5208    37267   6.2e+01   0  -5.09456497284e-05   2.37506664595e-02    1.858170161e-02   4.46121153715e-04    12  9.258e-10
# 9    73136    5303    37271   4.6e+01   0  -4.69650997814e-05   2.17145418585e-02    1.676598687e-02   3.00998231969e-04    11  1.869e-10
#10    73122    5418    36234   3.7e+01   0  -3.92301333187e-05   2.10716743928e-02    1.625069885e-02   3.62297412797e-04    11  2.434e-11
#11    73289    5628    36832   3.2e+01   0  -4.59771150449e-05   2.08539714681e-02    1.607480305e-02   3.51307724379e-04    11  2.391e-11
#12    73353    5502    37150   3.1e+01   0  -1.47959634744e-05   2.06818158669e-02    1.597489514e-02   1.27023511751e-04    11  2.384e-11
#13    73290    5627    37903   3.0e+01   0   7.52585313394e-06   2.06218345476e-02    1.581664733e-02  -2.01109452761e-05    11  7.832e-10
#14    73551    5519    37670   3.0e+01   0  -6.09417174732e-06   2.06695007072e-02    1.592181791e-02   1.03602062755e-04    11  2.337e-11
#15    73450    5596    37064   3.0e+01   0  -1.11801473460e-06   2.06949008037e-02    1.592683610e-02   2.15290999961e-05    11  2.308e-11
#16    73586    5494    37768   3.1e+01   0   8.54230550716e-06   2.05547638153e-02    1.581732287e-02  -5.00085515511e-05    11  2.323e-11
#17    73685    5594    37127   3.0e+01   0  -1.27440197429e-05   2.04931727346e-02    1.571203905e-02   1.19522661683e-04    11  1.661e-10
#18    73675    5650    37186   3.0e+01   0  -3.40743951960e-06   2.05356936095e-02    1.582702937e-02   8.79936779017e-05    11  2.449e-11
19    73831    5641    37373   2.9e+01   0  -6.55293404386e-07   2.06378241083e-02    1.587421423e-02   2.98775390619e-05    11  3.657e-11
#20   123234    7644    65026   3.0e+01   0  -9.41311755409e-08   1.93095250158e-02    1.511975894e-02  -1.88974557793e-05    13  2.665e-11
#21   200821   10566   106863   2.4e+01   0  -9.25605412464e-06   1.73915164341e-02    1.401608875e-02   9.31840386920e-05    12  1.223e-10
#22   200739   12226   102139   1.7e+01   0  -3.95878651938e-06   1.62067648373e-02    1.333846853e-02   4.25584870809e-05    11  8.434e-10
#23   201768   13675   101144   1.4e+01   0   2.46443758972e-05   1.53832059538e-02    1.284286174e-02  -1.73937261338e-04    11  9.718e-11
#24   203056   14684   102446   1.2e+01   0   7.68092895116e-06   1.48467186563e-02    1.255893853e-02  -1.10157972076e-04    11  6.515e-11
#25   203418   15417   103120   1.1e+01   0   9.47259497965e-06   1.46065964534e-02    1.244619825e-02  -9.20440139426e-05    11  4.456e-11
#26   204266   15837   103267   1.0e+01   0   8.90245604252e-07   1.44806627842e-02    1.235025291e-02   9.36822447151e-06    11  4.656e-11
#27   203260   16124   101341   1.0e+01   0  -2.70633097376e-06   1.44995209323e-02    1.237321964e-02   1.57967175262e-05    11  5.310e-11
#28   202820   16017   101264   1.0e+01   0  -6.52290170555e-06   1.45160313333e-02    1.235225706e-02   4.31745107706e-05    11  5.533e-11
#29   204252   15970   103873   1.0e+01   0   4.16766302784e-06   1.46269805748e-02    1.243722909e-02  -1.43762769004e-05    11  6.045e-11
#30   203599   15852   103678   1.0e+01   0  -7.77207686424e-06   1.46013505819e-02    1.237571970e-02   6.18018169770e-05    11  5.308e-11
31   203470   15927   101736   1.0e+01   0  -9.64097391423e-06   1.46194928786e-02    1.243801782e-02   8.04479174382e-05    11  4.716e-11
#32   300676   19789   154869   1.0e+01   0   4.16004474144e-06   1.39899240822e-02    1.212280749e-02  -2.17141297216e-05    11  1.337e-10
#33   397402   24887   206299   8.6e+00   0   2.40269716001e-06   1.35334466202e-02    1.192622135e-02  -1.07855778862e-05    11  1.507e-10
#34   394897   26922   199673   7.6e+00   0  -2.89140168386e-06   1.34205440476e-02    1.187079982e-02   1.14893995710e-05    11  8.472e-11
#35   396505   28122   201081   7.3e+00   0  -1.31785141810e-06   1.33870207215e-02    1.186718025e-02   1.74100827452e-06    11  1.464e-10
#36   396260   28361   199955   7.3e+00   0   3.65128799253e-06   1.33794293087e-02    1.186488680e-02  -2.21168792866e-05    11  1.573e-10
#37   396901   28752   201379   7.1e+00   0  -5.48139285678e-06   1.33928923008e-02    1.187954522e-02   4.71704391191e-05    11  2.019e-10
#38   398744   28779   202297   7.3e+00   0   5.20937035092e-07   1.33771682971e-02    1.186794004e-02   1.25561549364e-05    11  3.456e-10
#39   397892   28742   202297   7.2e+00   0  -1.28146786029e-06   1.33909551664e-02    1.187082979e-02   1.43308899824e-05    11  1.944e-10
40   398339   28833   201569   7.2e+00   0   1.23961613240e-06   1.33799839055e-02    1.187477591e-02   5.89140523008e-06    11  4.684e-10
#41   532008   34001   273031   7.2e+00   0   2.00829521355e-07   1.32642744890e-02    1.184534522e-02   6.29238397429e-06    11  1.135e-10
#42   588933   36846   298769   6.5e+00   0   1.24498391428e-06   1.32172285095e-02    1.183882742e-02  -9.61838523517e-06    11  1.940e-10
#43   779427   44658   382964   6.3e+00   0   8.96423797991e-07   1.31545717722e-02    1.182382460e-02  -7.86092773246e-06    11  2.327e-10
#44   780781   46296   383188   5.8e+00   0   1.95061691973e-06   1.31487676598e-02    1.183036172e-02  -1.92965403729e-05    11  3.533e-10
#45   781191   46947   380622   6.1e+00   0  -8.60431854685e-07   1.31442787359e-02    1.183072367e-02   4.30366708906e-07    11  3.605e-10
#46   780542   47456   379943   5.9e+00   0   2.24733837334e-07   1.31436101483e-02    1.182718030e-02  -3.36162637865e-07    11  3.862e-10
47   783216   47822   383142   5.9e+00   0   4.65043737435e-07   1.31455228743e-02    1.182781027e-02   9.48971643047e-06    11  4.217e-08
#48   975986   54041   465076   5.9e+00   0  -1.49264583117e-06   1.31119898963e-02    1.182645058e-02   1.20067083570e-05    11  3.631e-10
#49  1165534   61288   546364   5.5e+00   0  -2.16277715108e-08   1.30935247835e-02    1.182783239e-02  -1.04008841467e-06    11  4.683e-10
#50  1548604   74059   708839   5.4e+00   0  -4.69504669029e-07   1.30697327962e-02    1.182977714e-02   3.89516124538e-06    11  5.545e-10
#51  1552414   77334   706864   4.9e+00   0  -5.03759732064e-07   1.30691833825e-02    1.183396168e-02   2.24429738377e-06    11  8.988e-10
#52  1554250   78041   705473   5.3e+00   0   1.12040396713e-06   1.30680122701e-02    1.183201817e-02  -7.44601464351e-06    11  7.105e-10
#53  1557325   79092   711476   5.1e+00   0  -5.72819390685e-07   1.30675075165e-02    1.183150950e-02   5.09382121396e-07    11  8.005e-10
54  1557605   79318   710238   5.2e+00   0  -2.62396096681e-07   1.30663960183e-02    1.182933299e-02   4.11123390191e-06    11  6.892e-10
#55  2327328   99800  1030915   5.1e+00   0   1.10574032031e-07   1.30478415811e-02    1.183749172e-02  -2.79385707104e-06    11  7.142e-10
#56  3098483  125431  1347089   4.5e+00   0   3.42771124047e-07   1.30394580746e-02    1.184248899e-02  -7.00094784343e-07    12  9.845e-11
#57  3106934  129624  1343435   4.6e+00   0   6.58257728513e-07   1.30400548682e-02    1.184376819e-02  -5.39969517660e-06    12  9.969e-11
#58  3104707  130856  1340937   4.7e+00   0  -5.64402537908e-07   1.30397257071e-02    1.184336143e-02   1.77291907509e-06    12  9.992e-11
#59  3110543  132142  1343960   4.6e+00   0   1.94131146306e-07   1.30396742688e-02    1.184395571e-02  -3.29983048807e-08    12  1.007e-10
60  3116447  133102  1349395   4.7e+00   0   1.67823933483e-07   1.30398415474e-02    1.184308708e-02  -1.89732989697e-06    12  9.919e-11

ZONE T="al=0, GGNS+EPIC-ICS, Mach-Lp=4" 
19    73679   20720     5967   1.1e+01   0  -3.99342956850e-05   1.48343653812e-02    1.235811424e-02  -2.96982183862e-04    11  4.394e-11 
31   191104   45127    12735   6.9e+00   0   2.30087791836e-05   1.34382049033e-02    1.180622565e-02  -1.20351443079e-04    11  8.009e-11   
40   376775   71816    26980   5.9e+00   0  -2.21562105128e-06   1.31938889278e-02    1.178601770e-02   2.79796318578e-05    11  1.501e-10  
47   752306  114929    47427   5.3e+00   0   2.01015066147e-06   1.30906934111e-02    1.179456290e-02  -2.60789563541e-05    11  2.793e-10    
54  1519726  187169    90465   4.8e+00   0  -4.53321788221e-06   1.30457763501e-02    1.181617504e-02   2.10991543862e-05    11  5.652e-10    
60  3077511  305189   176145   4.3e+00   0  -1.79526897345e-06   1.30308984903e-02    1.183467763e-02   1.05033707299e-05    12  1.901e-10    

ZONE T="al=0, GGNS+EPIC-ICS, adj-drag"
19    72797   17215     7335   7.3e-01   0  -2.50751994905e-05   1.49827345201e-02    1.245266739e-02   1.26548058232e-04    10  6.597e-10  
31   195960   41406    18395   4.5e-01   0  -8.68611996722e-06   1.33831805383e-02    1.180573800e-02   1.65252954809e-05    11  6.144e-11
40   385312   70316    36296   3.8e-01   0  -1.81817990871e-06   1.31782254332e-02    1.180486938e-02  -9.97959951018e-06    11  1.004e-10  
47   768974  120838    68989   3.4e-01   0  -4.23747886464e-07   1.30929552330e-02    1.181970188e-02   8.42646458106e-06    11  1.793e-10   
54  1546668  213027   131154   3.1e-01   0  -3.43704115707e-08   1.30543187344e-02    1.183811701e-02  -1.04708631769e-06    11  5.261e-10   
59  3108309  371835   245913   2.7e-01   0  -6.74735292592e-08   1.30391552469e-02    1.185254076e-02  -2.62640584487e-07    12  1.555e-10   

ZONE T="al=0, GGNS, FIXED"
1 31716225 0  9368718 0 1   1.16959602142e-07   1.30365809558e-02  1.18586e-02  -7.42927474207e-07    80  3.830e-10
2  3997121 0  1215528 0 1  -1.74055913238e-07   1.30662373179e-02  1.17869e-02   1.66351884179e-06    47  6.273e-13
3   507873 0   167711 0 1  -4.85074563339e-06   1.33250185993e-02  1.15163e-02   3.97339754536e-05    35  2.419e-12
4    65585 0    24602 0 1  -5.71362619770e-05   1.51190214439e-02  1.06547e-02   5.05513578560e-04    38  1.363e-11

#
#  Alpha=5 degrees
#
ZONE T="al=5, GGNS+EPIC-ICS, Mach-Lp=2"
#  0     1570     661      366   0.0e+00   0   5.64984771389e-02   1.19009687685e-01    7.533195164e-02  -2.01540649192e-01    17  7.260e-11  
#  1     2655     310     1847   4.5e+03   0   2.23810707607e-02   7.33798184198e-02    3.602352670e-02  -3.41388311768e-02    11  1.658e-11  
#  2    10644     831     6193   3.5e+03   0   1.43082912189e-02   6.73473112896e-02    4.519589865e-02  -1.18133516190e-02    34  6.352e-12  
#  3    20847    1195    10311   1.5e+03   0   1.39178816324e-02   5.83330366752e-02    4.411184856e-02  -6.19900965982e-03    16  8.341e-12  
#  4    71364    2864    37903   7.6e+02   0   1.22728298242e-02   4.67818931210e-02    3.813287850e-02   9.80383043353e-03    15  3.036e-10  
#  5    70779    3195    40299   3.3e+02   0   1.17325246546e-02   4.01730351289e-02    3.291498778e-02   1.75112992840e-02    13  2.255e-10  
#  6    71226    3710    41828   1.8e+02   0   1.09789008126e-02   3.47635284594e-02    2.799318539e-02   2.52613162512e-02    13  1.553e-08  
#  7    71813    4328    39534   9.9e+01   0   1.03729045636e-02   2.99187574272e-02    2.361488906e-02   3.18776426132e-02    12  1.476e-10  
#  8    72963    4962    38472   6.5e+01   0   9.61495947631e-03   2.57733821637e-02    1.974009917e-02   3.96672321865e-02    12  7.223e-10  
#  9    72734    5135    37944   4.8e+01   0   9.14147964131e-03   2.35646556817e-02    1.771504333e-02   4.39536929129e-02    12  3.818e-11  
# 10    72842    5379    37256   3.9e+01   0   9.10019154202e-03   2.27664443246e-02    1.712958945e-02   4.47744888366e-02    11  1.531e-11  
# 11    72905    5490    37381   3.4e+01   0   9.03474346449e-03   2.24460109675e-02    1.682190936e-02   4.50917773781e-02    11  1.399e-11  
# 12    73480    5494    37892   3.3e+01   0   8.92120321886e-03   2.23577025516e-02    1.675847560e-02   4.60959050151e-02    11  1.299e-11  
# 13    72991    5514    37116   3.2e+01   0   8.92666487097e-03   2.22449523818e-02    1.669541257e-02   4.60475000571e-02    11  1.313e-11  
# 14    72660    5547    36863   3.2e+01   0   9.07757612518e-03   2.22117222392e-02    1.662992515e-02   4.56052740236e-02    11  1.350e-11  
# 15    73050    5566    37334   3.1e+01   0   9.02711303200e-03   2.23791115301e-02    1.672686919e-02   4.55126425013e-02    11  9.963e-11  
# 16    73486    5561    37726   3.2e+01   0   9.08467763857e-03   2.22940435849e-02    1.674241762e-02   4.45974270056e-02    11  1.440e-11  
# 17    73191    5533    37661   3.2e+01   0   8.94291090789e-03   2.23464925049e-02    1.670469932e-02   4.56791427251e-02    11  1.353e-11  
# 18    73624    5590    37845   3.2e+01   0   8.93264397244e-03   2.22793229136e-02    1.671405413e-02   4.58438322295e-02    11  1.373e-11  
 19    73407    5536    38055   3.2e+01   0   8.82921110708e-03   2.22730076924e-02    1.669835448e-02   4.71826081747e-02    11  7.444e-10  
# 20   123045    7592    66356   3.3e+01   0   8.05025780806e-03   2.08502884828e-02    1.591419566e-02   5.22408731157e-02    11  2.695e-11  
# 21   201685   10559   109005   2.6e+01   0   7.32639415547e-03   1.88467887145e-02    1.478949111e-02   5.87623241156e-02    12  3.625e-11  
# 22   201305   11928   105349   1.8e+01   0   7.22028116105e-03   1.75241605518e-02    1.398731606e-02   6.11480600744e-02    11  6.997e-10  
# 23   202496   13479   104739   1.4e+01   0   7.09071138967e-03   1.66611078808e-02    1.352119897e-02   6.29111435184e-02    11  1.267e-10  
# 24   202608   14440   104050   1.3e+01   0   6.99921711857e-03   1.62156221442e-02    1.327720961e-02   6.44575102838e-02    11  2.481e-11  
# 25   203979   15021   105075   1.2e+01   0   6.88651996030e-03   1.59167812625e-02    1.307583153e-02   6.56289554362e-02    11  2.216e-11  
# 26   203810   15278   104051   1.1e+01   0   6.89472416723e-03   1.57791595398e-02    1.300776553e-02   6.58902287764e-02    11  1.900e-11  
# 27   204033   15657   103733   1.1e+01   0   6.89242115601e-03   1.57594213889e-02    1.298982093e-02   6.56895494883e-02    11  1.811e-11  
# 28   204514   15623   104498   1.0e+01   0   6.85578241514e-03   1.57421484571e-02    1.296431767e-02   6.60496000014e-02    12  1.710e-11  
# 29   204434   15704   103927   1.0e+01   0   6.90071032570e-03   1.57331554076e-02    1.297358335e-02   6.56668010341e-02    11  1.787e-11  
# 30   204028   15605   103946   1.0e+01   0   6.83684714888e-03   1.56489651757e-02    1.291825833e-02   6.62050752551e-02    11  1.930e-11  
 31   204336   15776   103631   1.0e+01   0   6.92466026734e-03   1.56580812915e-02    1.295304681e-02   6.56036710017e-02    11  1.856e-11  
# 32   300390   19847   156536   1.0e+01   0   6.58212424490e-03   1.50019117187e-02    1.265566259e-02   6.84611467027e-02    11  6.601e-11  
# 33   398003   24458   208853   8.8e+00   0   6.41677524947e-03   1.45116584928e-02    1.242639254e-02   7.01279395267e-02    11  8.145e-11  
# 34   397065   26615   204422   7.5e+00   0   6.42779507396e-03   1.43483541187e-02    1.235515792e-02   7.02878972104e-02    11  2.790e-11  
# 35   398177   27758   205057   7.3e+00   0   6.39110632875e-03   1.43033466726e-02    1.232423808e-02   7.06261458139e-02    11  5.087e-11  
# 36   398562   28280   205677   7.1e+00   0   6.41961425548e-03   1.43171188920e-02    1.234437764e-02   7.03904729999e-02    11  5.568e-11  
# 37   399829   28476   204684   7.2e+00   0   6.42811470918e-03   1.43229963802e-02    1.233671991e-02   7.02809714978e-02    11  6.417e-11  
# 38   399238   28484   204841   7.3e+00   0   6.40824650835e-03   1.43254291505e-02    1.233906879e-02   7.05186703382e-02    11  6.228e-11  
# 39   399509   28614   204971   7.1e+00   0   6.41177683940e-03   1.43135028430e-02    1.233706236e-02   7.04371749956e-02    11  5.752e-11  
 40   398594   28579   203122   7.1e+00   0   6.42686997629e-03   1.43163941861e-02    1.234443048e-02   7.03392100463e-02    11  6.028e-11  
# 41   534344   33848   276488   7.2e+00   0   6.30780594894e-03   1.41828040755e-02    1.231146611e-02   7.11784831671e-02    11  4.156e-11  
# 42   592748   36784   304002   6.4e+00   0   6.27729103836e-03   1.41301730089e-02    1.229172518e-02   7.14007007263e-02    11  7.683e-11  
# 43   783772   44299   390860   6.4e+00   0   6.19908182652e-03   1.40562963589e-02    1.227981235e-02   7.18740226197e-02    11  1.009e-10  
# 44   784037   45941   389376   5.7e+00   0   6.19793842821e-03   1.40461932308e-02    1.228716826e-02   7.19387654939e-02    11  1.308e-10  
# 45   784666   46792   387953   6.0e+00   0   6.20988683234e-03   1.40445222447e-02    1.229021372e-02   7.18148215466e-02    11  1.336e-10  
# 46   784646   47290   386120   5.8e+00   0   6.19935609516e-03   1.40420033359e-02    1.228848547e-02   7.19194918073e-02    11  1.439e-10  
 47   787027   47621   388839   5.9e+00   0   6.19461579939e-03   1.40436787147e-02    1.228883470e-02   7.19036526878e-02    12  2.731e-11  
# 48   976553   53746   471324   5.8e+00   0   6.15212177597e-03   1.40086115969e-02    1.228214132e-02   7.22115320372e-02    11  1.593e-10  
# 49  1169928   60822   557602   5.5e+00   0   6.12001957249e-03   1.39858109739e-02    1.228528934e-02   7.24040923780e-02    11  1.840e-10  
# 50  1557451   73511   725347   5.3e+00   0   6.07517204335e-03   1.39559755562e-02    1.228630302e-02   7.26797045544e-02    12  3.668e-11  
# 51  1557777   76646   719367   4.9e+00   0   6.07899951540e-03   1.39576080474e-02    1.228925053e-02   7.26616543707e-02    11  2.768e-10  
# 52  1559277   77287   722322   5.3e+00   0   6.08045858437e-03   1.39545832888e-02    1.228862164e-02   7.26540262119e-02    11  2.685e-10  
# 53  1559701   78354   722526   5.1e+00   0   6.07919687587e-03   1.39573333518e-02    1.228936185e-02   7.26674046301e-02    11  2.693e-10  
 54  1558348   78491   719427   5.2e+00   0   6.08221304226e-03   1.39556810886e-02    1.228769035e-02   7.26495232774e-02    11  2.946e-10  
# 55  2331653   98664  1049707   5.2e+00   0   6.03877165231e-03   1.39317308393e-02    1.228887022e-02   7.29015063380e-02    11  3.279e-10  
# 56  3111339  123892  1369191   4.5e+00   0   6.01624462138e-03   1.39210025015e-02    1.229610223e-02   7.30397678697e-02    11  4.702e-10  
# 57  3113398  128479  1370150   4.6e+00   0   6.01780162110e-03   1.39224524273e-02    1.229696051e-02   7.30253508190e-02    11  4.487e-10  
 58  3116280  129314  1365455   4.7e+00   0   6.01691073711e-03   1.39211305589e-02    1.229820704e-02   7.30349334829e-02    12  4.321e-11  

ZONE T="al=5, GGNS+EPIC-ICS, Mach-Lp=4"
 19    74026   20675     5817   1.1e+01   0   1.26835274302e-02   1.63955263000e-02    1.295603158e-02   3.71478630525e-02    11  1.660e-11 
 27   190890   44838    12479   6.8e+00   0   9.24454747657e-03   1.46313764130e-02    1.230015262e-02   5.71953671544e-02    11  2.781e-11  
 34   374611   71897    23916   5.7e+00   0   7.90603712703e-03   1.42412908731e-02    1.225309460e-02   6.39874839501e-02    11  4.437e-11  
 42   753781  116199    47950   5.2e+00   0   6.92322554813e-03   1.40447921398e-02    1.225653976e-02   6.87745545590e-02    12  7.922e-11   
 57  1527355  192242    92270   4.7e+00   0   6.50283261363e-03   1.39652652141e-02    1.227309371e-02   7.08182403412e-02    12  4.231e-11
  
ZONE T="al=5, GGNS+EPIC-ICS, adj-drag"
 13    72506   12664     8385   1.4e+01   0   8.33110105421e-03   1.75033548132e-02    1.376361284e-02   5.60766943847e-02    11  1.844e-11  
 20   197185   35030    19921   6.4e+00   0   6.84089369372e-03   1.43562248410e-02    1.227892343e-02   6.83835653824e-02    11  2.829e-11   
 27   386321   60079    38762   5.4e+00   0   6.42758159449e-03   1.41050969764e-02    1.225028544e-02   7.07280788506e-02    11  4.967e-11  
 34   773213  104614    73915   4.7e+00   0   6.19456631119e-03   1.39945434034e-02    1.227408344e-02   7.20399486498e-02    12  4.560e-11   
 49  1554561  189904   135323   4.2e+00   0   6.07168741731e-03   1.39435747010e-02    1.228686626e-02   7.27607231312e-02    12  6.243e-11   
 
ZONE T="al=5, GGNS+EPIC-ICS, adj-lift"
 19    72063   10030     9320   1.7e+01   0   7.27318718542e-03   1.92971936966e-02    1.438636825e-02   6.07009777481e-02    11  1.570e-11  
 27   199918   25376    23870   7.6e+00   0   6.38179621141e-03   1.51383496972e-02    1.255694101e-02   7.01127723950e-02    11  2.299e-11  
 34   394474   43909    46597   5.9e+00   0   6.20202983302e-03   1.42444619270e-02    1.226785297e-02   7.18473589934e-02    11  3.725e-11 
 42   781606   74471    87683   5.0e+00   0   6.08687612672e-03   1.40309815441e-02    1.227966176e-02   7.26224608141e-02    11  7.881e-11 
 55  1562213  126483   164948   4.5e+00   0   6.01218709496e-03   1.39599146372e-02    1.229249877e-02   7.30743678819e-02    12  4.894e-11   
 
ZONE T="al=5, GGNS, FIXED"
 1 31716225 0  9368718 0 1   5.93908073411e-03   1.39082436582e-02  1.23052e-02   7.34861398268e-02    79  1.799e-15 
 2  3997121 0  1215528 0 1   5.94759439948e-03   1.39386397018e-02  1.22306e-02   7.33958412794e-02    48  1.881e-11 
 3   507873 0   164498 0 1   6.04008085254e-03   1.42116055378e-02  1.19554e-02   7.25517738181e-02    34  1.152e-12
 4    65585 0    25956 0 1   6.82899422901e-03   1.61196640108e-02  1.11085e-02   6.61657456632e-02    44  4.984e-12 

#
#  Alpha=10 degrees
#
ZONE T="al=10, GGNS+EPIC-ICS, Mach-Lp=2"
#  0     1570     661      366   0.0e+00   0   1.18568770339e-01   1.48572906326e-01    9.044965601e-02  -4.75012228546e-01    16  2.657e-10  
#  1     2727     326     1872   4.5e+03   0   6.39972680680e-02   1.02488270301e-01    5.282395156e-02  -2.19708653027e-01    11  7.444e-10  
#  2    10566     769     6621   3.3e+03   0   4.05434612002e-02   7.03202022273e-02    4.099216734e-02  -1.09916185083e-01    15  3.965e-12  
#  3    20789    1210    10708   1.5e+03   0   3.58927985125e-02   6.95058501136e-02    4.860906989e-02  -8.95762154731e-02    17  3.950e-10  
#  4    71130    2845    38930   7.5e+02   0   3.43556429960e-02   5.52672267674e-02    4.150788232e-02  -6.28157281834e-02    16  5.816e-10  
#  5    70757    3046    41834   3.4e+02   0   3.34728119747e-02   4.76643015544e-02    3.591591936e-02  -4.84562446728e-02    13  8.723e-10  
#  6    71346    3571    43334   1.8e+02   0   3.15589893209e-02   4.18558765927e-02    3.072039015e-02  -3.06318223694e-02    13  5.483e-11  
#  7    71982    4203    41446   1.0e+02   0   3.00319214948e-02   3.66473954218e-02    2.609885123e-02  -1.67911257306e-02    12  9.294e-10  
#  8    72274    4675    39301   7.1e+01   0   2.81582223411e-02   3.17536349000e-02    2.174765749e-02  -2.67973914556e-04    12  9.405e-10  
#  9    72947    4893    39433   5.2e+01   0   2.60110888964e-02   2.88504133722e-02    1.944168002e-02   1.59578036358e-02    12  8.250e-10  
# 10    72817    5103    38915   4.3e+01   0   2.51880379868e-02   2.79121066734e-02    1.869981765e-02   2.07516696445e-02    12  1.969e-09  
# 11    72768    5290    38171   3.9e+01   0   2.53328052236e-02   2.77276118882e-02    1.851113130e-02   1.97936461334e-02    11  1.055e-10  
# 12    72853    5239    38337   3.8e+01   0   2.49542967384e-02   2.72810185546e-02    1.819996843e-02   2.29648253778e-02    11  2.283e-11  
# 13    73318    5340    38842   3.6e+01   0   2.51215955998e-02   2.71837400608e-02    1.812508660e-02   2.19660103807e-02    11  6.083e-11  
# 14    72400    5349    38733   3.5e+01   0   2.48156588330e-02   2.72335549241e-02    1.819713435e-02   2.39142567296e-02    11  5.682e-10  
# 15    73451    5356    39739   3.7e+01   0   2.50299779390e-02   2.74123896332e-02    1.823763586e-02   2.23128728093e-02    11  1.756e-11  
# 16    72562    5281    38693   3.7e+01   0   2.46715484056e-02   2.71649169061e-02    1.807374441e-02   2.51702455990e-02    11  8.175e-11  
# 17    73132    5358    39407   3.6e+01   0   2.50185590769e-02   2.72796630598e-02    1.817545739e-02   2.21333341947e-02    11  3.985e-10  
# 18    72756    5356    38628   3.5e+01   0   2.49229482335e-02   2.71990583037e-02    1.808378884e-02   2.34548036406e-02    11  3.538e-11  
 19    72966    5261    38676   3.5e+01   0   2.48531761841e-02   2.72277672641e-02    1.819791481e-02   2.36359659069e-02    11  1.803e-11  
# 20   122524    7212    66967   3.5e+01   0   2.37873002353e-02   2.55512369488e-02    1.732102935e-02   3.31165761062e-02    12  5.287e-11  
# 21   201573   10117   111302   2.9e+01   0   2.27073221057e-02   2.33160743706e-02    1.609147535e-02   4.41962511169e-02    12  1.662e-11  
# 22   201483   11415   108651   2.0e+01   0   2.23255474726e-02   2.19557267535e-02    1.528987542e-02   4.98321036670e-02    12  5.859e-11  
# 23   203475   12799   109513   1.6e+01   0   2.20617352972e-02   2.10478894226e-02    1.481091386e-02   5.42205719132e-02    11  3.218e-10  
# 24   202996   13798   107359   1.4e+01   0   2.19157619869e-02   2.05351111131e-02    1.452225967e-02   5.61253391646e-02    12  4.781e-10  
# 25   203177   14397   108141   1.3e+01   0   2.17597015661e-02   2.03153997951e-02    1.441445398e-02   5.79744566362e-02    11  2.255e-10  
# 26   203497   14484   106372   1.2e+01   0   2.18017701937e-02   2.02424083447e-02    1.437404431e-02   5.73572641766e-02    10  2.247e-09  
# 27   204082   14573   107488   1.2e+01   0   2.17801548090e-02   2.02065456988e-02    1.434593685e-02   5.71664792793e-02    11  4.528e-11  
# 28   203484   14644   107020   1.2e+01   0   2.17800053709e-02   2.01540023242e-02    1.436189286e-02   5.71474028910e-02    11  3.058e-11  
# 29   203674   14614   106688   1.1e+01   0   2.15503845029e-02   2.00307410532e-02    1.426399007e-02   5.94911697007e-02    11  1.355e-11  
# 30   203370   14875   105732   1.1e+01   0   2.16576431007e-02   2.00943322321e-02    1.433387996e-02   5.87159078799e-02    11  7.327e-10  
 31   203973   14781   106329   1.1e+01   0   2.15721343939e-02   2.00127851105e-02    1.427880425e-02   5.90746043197e-02    11  1.296e-11  
# 32   301737   18703   161194   1.1e+01   0   2.13454225075e-02   1.93461274646e-02    1.397057966e-02   6.25621076991e-02    11  3.258e-10  
# 33   398910   22944   213635   9.9e+00   0   2.10312231749e-02   1.85146009015e-02    1.362552438e-02   6.70274347008e-02    12  1.148e-11  
# 34   397901   25184   209643   8.2e+00   0   2.10439849387e-02   1.82171061089e-02    1.352401588e-02   6.78470546939e-02    11  4.652e-10  
# 35   398144   26562   208190   7.7e+00   0   2.10105522401e-02   1.80993260286e-02    1.348421733e-02   6.84089037282e-02    11  1.004e-10  
# 36   398994   27136   209014   7.3e+00   0   2.10194174050e-02   1.80734624329e-02    1.347678587e-02   6.84508242497e-02    11  5.116e-11  
# 37   399889   27400   210931   7.2e+00   0   2.09694966998e-02   1.80792904096e-02    1.347069763e-02   6.88032598110e-02    11  2.980e-11  
# 38   400760   27470   212245   7.3e+00   0   2.10192093617e-02   1.80761574765e-02    1.348332689e-02   6.81769364031e-02    11  1.470e-10   
# 39   400269   27489   209304   7.2e+00   0   2.09808088676e-02   1.80565605561e-02    1.346868550e-02   6.87304666616e-02    11  7.519e-11   
 40   400394   27606   210545   7.2e+00   0   2.09947743888e-02   1.80741410871e-02    1.347038489e-02   6.85370084788e-02    11  1.644e-10   
# 41   535583   32543   285263   7.1e+00   0   2.08829063901e-02   1.79040959335e-02    1.342322606e-02   6.96714282426e-02    11  6.710e-11   
# 42   592343   35253   308442   6.5e+00   0   2.08789986286e-02   1.78268593052e-02    1.339417290e-02   6.99229855615e-02    11  5.416e-11   
# 43   783894   42843   396198   6.3e+00   0   2.07958131259e-02   1.77217302384e-02    1.338193266e-02   7.06839557809e-02    11  1.057e-10  
# 44   784723   44677   395094   5.7e+00   0   2.08024893572e-02   1.77150156095e-02    1.338802195e-02   7.06809942929e-02    11  8.274e-11  
# 45   785550   45330   395021   5.9e+00   0   2.07861444852e-02   1.77118626514e-02    1.339033609e-02   7.07851953828e-02    11  1.142e-10  
# 46   786363   45934   395311   5.8e+00   0   2.07810587004e-02   1.77090104860e-02    1.338653119e-02   7.08689775024e-02    11  7.760e-11  
 47   786315   45942   395511   5.8e+00   0   2.07764958674e-02   1.77053490636e-02    1.338888747e-02   7.09011287755e-02    11  8.509e-11  
# 48   979393   52024   479509   5.9e+00   0   2.07661034660e-02   1.76673796377e-02    1.338007969e-02   7.10011221456e-02    11  2.632e-10  
# 49  1171796   58741   567276   5.4e+00   0   2.07159757658e-02   1.76309552374e-02    1.337649019e-02   7.14838353677e-02    11  1.122e-10  
# 50  1556803   71351   735345   5.2e+00   0   2.06893270287e-02   1.76002766960e-02    1.338477563e-02   7.17351117190e-02    12  3.966e-10  
# 51  1562375   74421   738330   4.9e+00   0   2.06801230630e-02   1.75999507799e-02    1.338916560e-02   7.18095316966e-02    11  5.989e-10  
# 52  1564367   75124   738581   5.1e+00   0   2.07023053463e-02   1.75997142524e-02    1.338725888e-02   7.16355694725e-02    12  2.042e-11  