VARIABLES="N","h=(1/N)^(1/3)","h^2=(1/N)^(2/3)","C_L","C_D","C_Dp","C_Dv","C_My","max_MUT"
# Hemisphere Cylinder Mach = 0.6, Re = 0.35 million based on cylinder diameter, Tref = 540 deg-R
#
# CFL3D on Hex grids (structured code):
ZONE, t="CFL3D SA-neg, FO turb, Structured, AoA=0-deg"
78643200 0.23341E-02 0.54479E-05  0.27686607432E-08  0.11134940186E-01  0.88885122384E-03  0.10246088963E-01  -0.11227763136E-08  157.055
 9830400 0.46681E-02 0.21791E-04  0.13357612191E-08  0.11161704483E-01  0.91777562712E-03  0.10243928856E-01  -0.49784702061E-09  157.312
 1228800 0.93363E-02 0.87166E-04  0.66346249537E-09  0.11357408370E-01  0.10787304416E-02  0.10278677928E-01  -0.20417415379E-09  158.348
  153600 0.18673E-01 0.34866E-03  0.68103065958E-09  0.12344443024E-01  0.20445935147E-02  0.10299849510E-01  -0.18106135138E-09  161.422
   19200 0.37345E-01 0.13947E-02  0.14910253130E-08  0.17054521385E-01  0.67929753695E-02  0.10261546016E-01  -0.40358541723E-09  170.886
ZONE, t="CFL3D SA-neg, FO turb, Structured, AoA=5-deg"
78643200 0.23341E-02 0.54479E-05  0.14935300161E-01  0.12202379578E-01  0.16174127827E-02  0.10584966795E-01  -0.22417910528E-02  244.780
 9830400 0.46681E-02 0.21791E-04  0.14989800129E-01  0.12234478251E-01  0.16507955094E-02  0.10583682742E-01  -0.22966071352E-02  240.709
 1228800 0.93363E-02 0.87166E-04  0.15069803262E-01  0.12437355383E-01  0.18195457988E-02  0.10617809584E-01  -0.23782072274E-02  232.199
  153600 0.18673E-01 0.34866E-03  0.15343839780E-01  0.13466102343E-01  0.28112787043E-02  0.10654823639E-01  -0.26095109186E-02  222.870
   19200 0.37345E-01 0.13947E-02  0.17552513453E-01  0.18512682479E-01  0.77606906231E-02  0.10751991856E-01  -0.40484366984E-02  232.896
ZONE, t="CFL3D SA-neg, FO turb, Structured, AoA=10-deg"
78643200 0.23341E-02 0.54479E-05  0.34355232777E-01  0.16023659933E-01  0.46262199403E-02  0.11397439993E-01  -0.73635319903E-02  394.564
 9830400 0.46681E-02 0.21791E-04  0.34545511879E-01  0.16089191187E-01  0.46885499945E-02  0.11400641192E-01  -0.75462862404E-02  376.402
 1228800 0.93363E-02 0.87166E-04  0.34769370396E-01  0.16318930182E-01  0.48893549479E-02  0.11429575234E-01  -0.77807922824E-02  336.381
  153600 0.18673E-01 0.34866E-03  0.35138369771E-01  0.17343869746E-01  0.59235226957E-02  0.11420347050E-01  -0.81460515973E-02  262.182
   19200 0.37345E-01 0.13947E-02  0.38581638234E-01  0.22829709244E-01  0.11303802696E-01  0.11525906549E-01  -0.10343706881E-01  211.960
ZONE, t="CFL3D SA-neg, FO turb, Structured, AoA=15-deg"
78643200 0.23341E-02 0.54479E-05  0.60886005904E-01  0.24106972454E-01  0.11961284781E-01  0.12145687673E-01  -0.16601370129E-01  821.779
 9830400 0.46681E-02 0.21791E-04  0.61353884771E-01  0.24272150084E-01  0.12114730071E-01  0.12157420013E-01  -0.17055269729E-01  748.451
 1228800 0.93363E-02 0.87166E-04  0.61704863833E-01  0.24576907764E-01  0.12369038752E-01  0.12207869012E-01  -0.17502724857E-01  588.923
  153600 0.18673E-01 0.34866E-03  0.61845112553E-01  0.25622223411E-01  0.13374435501E-01  0.12247787909E-01  -0.17896357304E-01  354.411
   19200 0.37345E-01 0.13947E-02  0.65336002364E-01  0.31432275405E-01  0.19100496118E-01  0.12331779287E-01  -0.20398616838E-01  181.301
ZONE, t="CFL3D SA-neg, FO turb, Structured, AoA=19-deg"
78643200 0.23341E-02 0.54479E-05  0.86924630611E-01  0.34904850704E-01  0.22342321832E-01  0.12562528872E-01  -0.26500337044E-01 1420.970
 9830400 0.46681E-02 0.21791E-04  0.87774097522E-01  0.35251713372E-01  0.22663518829E-01  0.12588194543E-01  -0.27318910879E-01 1266.840
 1228800 0.93363E-02 0.87166E-04  0.88637259491E-01  0.35774053437E-01  0.23122509913E-01  0.12651543524E-01  -0.28342279770E-01  943.903
  153600 0.18673E-01 0.34866E-03  0.87734402975E-01  0.36478821624E-01  0.23771729715E-01  0.12707091909E-01  -0.28212229679E-01  459.785
   19200 0.37345E-01 0.13947E-02  0.91702131241E-01  0.42939007748E-01  0.29965506247E-01  0.12973501501E-01  -0.31730227046E-01  239.771

# USM3D on Hex grids:
ZONE, t="USM3D SA-neg, FO turb, Structured, AoA=0-deg"
78643200 0.23341E-02 0.54479E-05  8.017694E-13  1.114712E-02  0.892820E-03 1.025430E-02 -7.833010E-14 1.5572819E+02
 9830400 0.46681E-02 0.21791E-04 -1.633222E-13  1.119922E-02  0.944800E-03 1.025442E-02  7.710765E-15 1.5551199E+02
 1228800 0.93363E-02 0.87166E-04  2.896107E-11  1.152615E-02  0.128009E-02 1.024606E-02 -1.313335E-12 1.5561422E+02
  153600 0.18673E-01 0.34866E-03  1.687673E-10  1.339288E-02  0.321022E-02 1.018266E-02 -1.653981E-11 1.5753655E+02
ZONE, t="USM3D SA-neg, FO turb, Structured, AoA=5-deg"
78643200 0.23341E-02 0.54479E-05 1.486620E-02  1.220736E-02  0.161528E-02  1.059208E-02 -2.177838E-03 2.4383726E+02
 9830400 0.46681E-02 0.21791E-04 1.489080E-02  1.226199E-02  0.166955E-02  1.059244E-02 -2.206081E-03 2.3932561E+02
 1228800 0.93363E-02 0.87166E-04 1.497145E-02  1.260172E-02  0.201139E-02  1.059033E-02 -2.289947E-03 2.3168386E+02
  153600 0.18673E-01 0.34866E-03 1.552647E-02  1.456068E-02  0.399241E-02  1.056827E-02 -2.695868E-03 2.2209715E+02
ZONE, t="USM3D SA-neg, FO turb, Structured, AoA=10-deg"
78643200 0.23341E-02 0.54479E-05 3.416181E-02  1.599886E-02  0.459618E-02  1.140268E-02 -7.187245E-03 3.9280152E+02
 9830400 0.46681E-02 0.21791E-04 3.424516E-02  1.606880E-02  0.466321E-02  1.140559E-02 -7.276495E-03 3.7407101E+02
 1228800 0.93363E-02 0.87166E-04 3.443674E-02  1.643787E-02  0.503285E-02  1.140502E-02 -7.495595E-03 3.3265451E+02
  153600 0.18673E-01 0.34866E-03 3.519581E-02  1.845840E-02  0.710487E-02  1.135353E-02 -8.106675E-03 2.4304625E+02
ZONE, t="USM3D SA-neg, FO turb, Structured, AoA=15-deg"
78643200 0.23341E-02 0.54479E-05 6.043339E-02  2.399446E-02  0.118447E-01  1.214977E-02 -1.618125E-02 8.1876254E+02
 9830400 0.46681E-02 0.21791E-04 6.061661E-02  2.410764E-02  0.119461E-01  1.216158E-02 -1.637627E-02 7.4072944E+02
 1228800 0.93363E-02 0.87166E-04 6.085386E-02  2.452953E-02  0.123472E-01  1.218238E-02 -1.674590E-02 5.7195752E+02
  153600 0.18673E-01 0.34866E-03 6.182742E-02  2.675715E-02  0.145634E-01  1.219373E-02 -1.784955E-02 3.4708655E+02
ZONE, t="USM3D SA-neg, FO turb, Structured, AoA=19-deg"
78643200 0.23341E-02 0.54479E-05 8.626640E-02  3.468565E-02  0.221211E-01  1.256458E-02 -2.586680E-02 1.4183119E+03
 9830400 0.46681E-02 0.21791E-04 8.672750E-02  3.492632E-02  0.223342E-01  1.259215E-02 -2.630026E-02 1.2523895E+03
 1228800 0.93363E-02 0.87166E-04 8.720454E-02  3.545778E-02  0.228387E-01  1.261909E-02 -2.701590E-02 9.0237495E+02
  153600 0.18673E-01 0.34866E-03 8.742511E-02  3.752691E-02  0.248821E-01  1.264484E-02 -2.793459E-02 4.4706486E+02

# FUN3D on Tet grids:
ZONE, t="FUN3D SA-neg, AoA=0, Tet"
71368353  0.2410819942E-02  0.5812052791E-05  0.3096770316E-05  0.1119896533E-01  0.9039494409E-03  0.1029501589E-01 -0.3528786587E-06  0.1576815528E+03
 8995153  0.4808361913E-02  0.2312034428E-04  0.6509175668E-05  0.1139480322E-01  0.1083774003E-02  0.1031102921E-01 -0.1148708976E-05  0.1597764470E+03
 1143081  0.9564031503E-02  0.9147069859E-04 -0.9201246824E-08  0.1193014457E-01  0.1646091718E-02  0.1028405285E-01  0.8728978746E-09  0.1674492542E+03
  147637  0.1892060109E-01  0.3579891456E-03  0.6526912506E-04  0.1500290217E-01  0.4929433922E-02  0.1007346825E-01 -0.1529167918E-04  0.1744531929E+03
   19683  0.3703703704E-01  0.1371742112E-02  0.2496806643E-03  0.2456399279E-01  0.1603898162E-01  0.8525011170E-02 -0.1551853321E-04  0.2221611280E+03
ZONE, t="FUN3D SA-neg, AoA=5, Tet"
71368353  0.2410819942E-02  0.5812052791E-05  0.1484065707E-01  0.1224852289E-01  0.1657077865E-02  0.1059144503E-01 -0.2155197450E-02  0.2444127596E+03
 8995153  0.4808361913E-02  0.2312034428E-04  0.1490494455E-01  0.1245898062E-01  0.1809878953E-02  0.1064910166E-01 -0.2214622438E-02  0.2331161903E+03
 1143081  0.9564031503E-02  0.9147069859E-04  0.1510282016E-01  0.1324835082E-01  0.2617714999E-02  0.1063063582E-01 -0.2372026705E-02  0.2228244870E+03
  147637  0.1892060109E-01  0.3579891456E-03  0.1609415518E-01  0.1624557423E-01  0.5804074022E-02  0.1044150021E-01 -0.3046568504E-02  0.2254535316E+03
   19683  0.3703703704E-01  0.1371742112E-02  0.2074661393E-01  0.2655165767E-01  0.1750397877E-01  0.9047678895E-02 -0.6029584804E-02  0.2945682245E+03
ZONE, t="FUN3D SA-neg, AoA=10, Tet"
71368353  0.2410819942E-02  0.5812052791E-05  0.3407719321E-01  0.1604466542E-01  0.4583360647E-02  0.1146130477E-01 -0.7116133902E-02  0.3871542107E+03
 8995153  0.4808361913E-02  0.2312034428E-04  0.3412859108E-01  0.1625632078E-01  0.4772639802E-02  0.1148368098E-01 -0.7187940560E-02  0.3456732066E+03
 1143081  0.9564031503E-02  0.9147069859E-04  0.3447320393E-01  0.1709080505E-01  0.5634195016E-02  0.1145661003E-01 -0.7504364508E-02  0.2954838434E+03
  147637  0.1892060109E-01  0.3579891456E-03  0.3609076558E-01  0.2030226462E-01  0.9088051367E-02  0.1121421325E-01 -0.8684018064E-02  0.2467166213E+03
   19683  0.3703703704E-01  0.1371742112E-02  0.4501759192E-01  0.3253719434E-01  0.2260548773E-01  0.9931706616E-02 -0.1451098729E-01  0.3631777369E+03
ZONE, t="FUN3D SA-neg, AoA=15, Tet"
71368353  0.2410819942E-02  0.5812052791E-05  0.5985104724E-01  0.2390453694E-01  0.1167243736E-01  0.1223209958E-01 -0.1577742395E-01  0.8210168633E+03
 8995153  0.4808361913E-02  0.2312034428E-04  0.5963021245E-01  0.2405048930E-01  0.1178704830E-01  0.1226344101E-01 -0.1573883093E-01  0.6647878610E+03
 1143081  0.9564031503E-02  0.9147069859E-04  0.5957636349E-01  0.2482817229E-01  0.1257990536E-01  0.1224826693E-01 -0.1595290121E-01  0.4544933842E+03
  147637  0.1892060109E-01  0.3579891456E-03  0.6136326233E-01  0.2835666541E-01  0.1633789586E-01  0.1201876955E-01 -0.1768671097E-01  0.3203371624E+03
   19683  0.3703703704E-01  0.1371742112E-02  0.7286558766E-01  0.4398244463E-01  0.3319698809E-01  0.1078545655E-01 -0.2583991343E-01  0.6869156122E+03
ZONE, t="FUN3D SA-neg, AoA=19, Tet"
71368353  0.2410819942E-02  0.5812052791E-05  0.8535345979E-01  0.3444726637E-01  0.2176545499E-01  0.1268181138E-01 -0.2536324448E-01  0.1327412819E+04
 8995153  0.4808361913E-02  0.2312034428E-04  0.8483696078E-01  0.3447525027E-01  0.2175376398E-01  0.1272148629E-01 -0.2525746665E-01  0.1063947706E+04
 1143081  0.9564031503E-02  0.9147069859E-04  0.8385707775E-01  0.3494030589E-01  0.2222544255E-01  0.1271486334E-01 -0.2511372842E-01  0.6666622111E+03
  147637  0.1892060109E-01  0.3579891456E-03  0.8453604570E-01  0.3835443406E-01  0.2587574773E-01  0.1247868632E-01 -0.2678664044E-01  0.4145119637E+03
   19683  0.3703703704E-01  0.1371742112E-02  0.9847652586E-01  0.5784528134E-01  0.4643349120E-01  0.1141179015E-01 -0.3778639424E-01  0.8495835362E+03

# FUN3D on Mixed grids:
ZONE, t="FUN3D, SA-neg, AoA=0, Prism/hex"
71368353  0.2410819942E-02  0.5812052791E-05 -0.1979613798E-08  0.1118942770E-01  0.9363742941E-03  0.1025305340E-01  0.3882020632E-09  0.1592016627E+03
 8995153  0.4808361913E-02  0.2312034428E-04 -0.4106313229E-08  0.1135479918E-01  0.1102871521E-02  0.1025192766E-01  0.8800484630E-09  0.1623762801E+03
 1143081  0.9564031503E-02  0.9147069859E-04 -0.9201246824E-08  0.1193014457E-01  0.1646091718E-02  0.1028405285E-01  0.8728978746E-09  0.1674492542E+03
  147637  0.1892060109E-01  0.3579891456E-03 -0.4320694921E-07  0.1347003008E-01  0.3034446570E-02  0.1043558351E-01  0.5114802181E-08  0.1617315231E+03
   19683  0.3703703704E-01  0.1371742112E-02 -0.3826002028E-06  0.1725929702E-01  0.6169338950E-02  0.1108995807E-01  0.3487737186E-07  0.1605500874E+03
ZONE, t="FUN3D, SA-neg, AoA=5, Prism/hex"
71368353  0.2410819942E-02  0.5812052791E-05  0.1484065707E-01  0.1224852289E-01  0.1657077865E-02  0.1059144503E-01 -0.2155197450E-02  0.2444127596E+03
 8995153  0.4808361913E-02  0.2312034428E-04  0.1487440286E-01  0.1241655245E-01  0.1827196820E-02  0.1058935563E-01 -0.2184473945E-02  0.2386402668E+03
 1143081  0.9564031503E-02  0.9147069859E-04  0.1508430814E-01  0.1300309755E-01  0.2391183354E-02  0.1061191420E-01 -0.2323716749E-02  0.2275096937E+03
  147637  0.1892060109E-01  0.3579891456E-03  0.1623213623E-01  0.1465021034E-01  0.3888304067E-02  0.1076190627E-01 -0.2973781381E-02  0.2127466263E+03
   19683  0.3703703704E-01  0.1371742112E-02  0.2140614256E-01  0.1896944522E-01  0.7498156334E-02  0.1147128889E-01 -0.5805421631E-02  0.2218317746E+03
ZONE, t="FUN3D, SA-neg, AoA=10, Prism/hex"
71368353  0.2410819942E-02  0.5812052791E-05  0.3411600899E-01  0.1603536856E-01  0.4633575592E-02  0.1140179297E-01 -0.7146820887E-02  0.4134971747E+03
 8995153  0.4808361913E-02  0.2312034428E-04  0.3422195062E-01  0.1622259645E-01  0.4821570696E-02  0.1140102575E-01 -0.7239390595E-02  0.3839067153E+03
 1143081  0.9564031503E-02  0.9147069859E-04  0.3467069879E-01  0.1685834837E-01  0.5453446663E-02  0.1140490171E-01 -0.7576348613E-02  0.3244213404E+03
  147637  0.1892060109E-01  0.3579891456E-03  0.3650107201E-01  0.1865621299E-01  0.7195936041E-02  0.1146027695E-01 -0.8648619241E-02  0.2357020172E+03
   19683  0.3703703704E-01  0.1371742112E-02  0.4525652957E-01  0.2401604358E-01  0.1196031008E-01  0.1205573350E-01 -0.1334131801E-01  0.1870621170E+03
ZONE, t="FUN3D, SA-neg, AoA=15, Prism/hex"
71368353  0.2410819942E-02  0.5812052791E-05  0.6031475800E-01  0.2400779805E-01  0.1186101080E-01  0.1214678725E-01 -0.1607187654E-01  0.9797559171E+03
 8995153  0.4808361913E-02  0.2312034428E-04  0.6037392176E-01  0.2419764514E-01  0.1204879932E-01  0.1214884581E-01 -0.1613826669E-01  0.8487750113E+03
 1143081  0.9564031503E-02  0.9147069859E-04  0.6070179070E-01  0.2486604530E-01  0.1270029088E-01  0.1216575441E-01 -0.1647951646E-01  0.6103863153E+03
  147637  0.1892060109E-01  0.3579891456E-03  0.6272362923E-01  0.2696462899E-01  0.1470049149E-01  0.1226413750E-01 -0.1793722506E-01  0.3065448844E+03
   19683  0.3703703704E-01  0.1371742112E-02  0.7336095282E-01  0.3358669036E-01  0.2087527411E-01  0.1271141625E-01 -0.2391570231E-01  0.1767620304E+03
ZONE, t="FUN3D, SA-neg, AoA=19, Prism/hex"
71368353  0.2410819942E-02  0.5812052791E-05  0.8607203763E-01  0.3466146649E-01  0.2210524561E-01  0.1255622087E-01 -0.2569183713E-01  0.1583801400E+04
 8995153  0.4808361913E-02  0.2312034428E-04  0.8608482778E-01  0.3484436531E-01  0.2228460460E-01  0.1255976071E-01 -0.2574622219E-01  0.1372249701E+04
 1143081  0.9564031503E-02  0.9147069859E-04  0.8628830849E-01  0.3551547949E-01  0.2293160310E-01  0.1258387639E-01 -0.2614943903E-01  0.9456661139E+03
  147637  0.1892060109E-01  0.3579891456E-03  0.8776185406E-01  0.3763704163E-01  0.2493410460E-01  0.1270293704E-01 -0.2762390716E-01  0.4100804977E+03
   19683  0.3703703704E-01  0.1371742112E-02  0.9948164022E-01  0.4567497577E-01  0.3243443141E-01  0.1324054436E-01 -0.3504858876E-01  0.2105205054E+03

# SFE on Tet grids:
ZONE, t="SFE_TET SA-neg, Tetrahedrons, AoA=0-deg"
71368353 0.2410820E-02  0.5812053E-05 0.2401717E-05 0.1113379E-01 0.8930891E-03 0.1024070E-01  0.3901764E-06 0.1587137731E+03
8995153 0.4808362E-02  0.2312034E-04 0.5179571E-05 0.1114138E-01 0.9091679E-03 0.1023221E-01  0.2711377E-06 0.1590025086E+03
1143081 0.9564032E-02  0.9147070E-04 0.1019518E-04 0.1116080E-01 0.9854636E-03 0.1017534E-01 -0.2335596E-06 0.1613634319E+03
147637 0.1892060E-01  0.3579891E-03 0.1545636E-04 0.1127239E-01 0.1434367E-02 0.9838027E-02 -0.2322203E-05 0.1723848714E+03
ZONE, t="SFE_TET SA-neg, Tetrahedrons, AoA=5-deg"
71368353 0.2410820E-02  0.5812053E-05 0.1483565E-01 0.1218412E-01 0.1613122E-02 0.1057100E-01 -0.2145406E-02 0.2545175229E+03
8995153 0.4808362E-02  0.2312034E-04 0.1484708E-01 0.1218375E-01 0.1630642E-02 0.1055310E-01 -0.2154762E-02 0.2543537427E+03
1143081 0.9564032E-02  0.9147070E-04 0.1488428E-01 0.1218830E-01 0.1712721E-02 0.1047558E-01 -0.2187708E-02 0.2545598392E+03
147637 0.1892060E-01  0.3579891E-03 0.1504591E-01 0.1228078E-01 0.2191659E-02 0.1008912E-01 -0.2329838E-02 0.2559924660E+03
ZONE, t="SFE_TET SA-neg, Tetrahedrons, AoA=10-deg"
71368353 0.2410820E-02  0.5812053E-05 0.3409756E-01 0.1596574E-01 0.4586117E-02 0.1137962E-01 -0.7128748E-02 0.4236188951E+03
8995153 0.4808362E-02  0.2312034E-04 0.3412587E-01 0.1597010E-01 0.4608512E-02 0.1136159E-01 -0.7153180E-02 0.4236516845E+03
1143081 0.9564032E-02  0.9147070E-04 0.3427333E-01 0.1599353E-01 0.4720435E-02 0.1127310E-01 -0.7280714E-02 0.4213629717E+03
147637 0.1892060E-01  0.3579891E-03 0.3503278E-01 0.1618216E-01 0.5372567E-02 0.1080959E-01 -0.7892755E-02 0.4277768067E+03
ZONE, t="SFE_TET SA-neg, Tetrahedrons, AoA=15-deg"
71368353 0.2410820E-02  0.5812053E-05 0.6033498E-01 0.2395307E-01 0.1182209E-01 0.1213098E-01 -0.01610712E+00 0.9116242186E+03
8995153 0.4808362E-02  0.2312034E-04 0.6037306E-01 0.2397108E-01 0.1185123E-01 0.1211985E-01 -0.01614092E+00 0.9084576988E+03
1143081 0.9564032E-02  0.9147070E-04 0.6068073E-01 0.2407653E-01 0.1203239E-01 0.1204414E-01 -0.01640445E+00 0.8938007858E+03
147637 0.1892060E-01  0.3579891E-03 0.6251022E-01 0.2472693E-01 0.1314415E-01 0.1158278E-01 -0.01783036E+00 0.8423255504E+03
ZONE, t="SFE_TET SA-neg, Tetrahedrons, AoA=19-deg"
71368353 0.2410820E-02  0.5812053E-05 0.8628420E-01 0.3467826E-01 0.2213469E-01 0.1254357E-01 -0.02588599E+00 0.1610424711E+04
8995153 0.4808362E-02  0.2312034E-04 0.8640126E-01 0.3473343E-01 0.2219622E-01 0.1253721E-01 -0.02598013E+00 0.1600885002E+04
1143081 0.9564032E-02  0.9147070E-04 0.8710641E-01 0.3503718E-01 0.2255685E-01 0.1248033E-01 -0.02655441E+00 0.1557446629E+04
 147637 0.1892060E-01  0.3579891E-03 0.9034646E-01 0.3645777E-01 0.2444905E-01 0.1200872E-01 -0.02905067E+00 0.1407542782E+04

# SFE on Mixed grids:
ZONE, t="SFE_MIXED SA-neg, Mixed, AoA=0-deg"
  8995153 0.4808362E-02  0.2312034E-04 -0.4225231E-06 0.1111756E-01 0.8882607E-03 0.1022930E-01 0.3025881E-06 0.1589436483E+03
  1143081 0.9564032E-02  0.9147070E-04 -0.5636976E-06 0.1110628E-01 0.9164011E-03 0.1018988E-01 -0.1941037E-06 0.1609074017E+03
  147637 0.1892060E-01  0.3579891E-03 -0.3358763E-05 0.1116149E-01 0.1178889E-02 0.9982596E-02 -0.2314720E-05 0.1697526662E+03
ZONE, t="SFE_Mixed SA-neg, Mixed, AoA=5-deg"
  8995153 0.4808362E-02  0.2312034E-04 0.1483400E-01 0.1217619E-01 0.1608441E-02 0.1056775E-01 -0.2149061E-02 0.2544570269E+03 
  1143081 0.9564032E-02  0.9147070E-04  0.1484786E-01 0.1216558E-01 0.1638787E-02 0.1052679E-01 -0.2167357E-02 0.2548891163E+03
  147637 0.1892060E-01  0.3579891E-03 0.1492036E-01 0.1222758E-01 0.1914237E-02 0.1031334E-01 -0.2246202E-02  0.2557416005E+03
ZONE, t="SFE_Mixed SA-neg, Mixed, AoA=10-deg"
 8995153 0.4808362E-02  0.2312034E-04 0.3409539E-01 0.1595439E-01 0.4582250E-02 0.1137214E-01 -0.7135366E-02 0.4239417025E+03 
 1143081 0.9564032E-02  0.9147070E-04  0.3416300E-01 0.1595050E-01 0.4626918E-02 0.1132358E-01 -0.7208899E-02 0.4219051107E+03 
 147637 0.1892060E-01  0.3579891E-03 0.3450745E-01 0.1605185E-01 0.4982278E-02 0.1106957E-01 -0.7531101E-02  0.4262235289E+03
ZONE, t="SFE_Mixed SA-neg, Mixed, AoA=15-deg"
 8995153 0.4808362E-02  0.2312034E-04 0.6031815E-01 0.2393152E-01 0.1181575E-01 0.1211577E-01 -0.01610325E+00 0.9096443444E+03 
 1143081 0.9564032E-02  0.9147070E-04  0.6044655E-01 0.2395592E-01 0.1188927E-01 0.1206665E-01 -0.01624065E+00 0.8970477592E+03 
 147637 0.1892060E-01  0.3579891E-03 0.6134220E-01 0.2428823E-01 0.1247443E-01 0.1181380E-01 -0.01703749E+00  0.8403952055E+03
ZONE, t="SFE_Mixed SA-neg, Mixed, AoA=19-deg"
 8995153 0.4808362E-02  0.2312034E-04 0.8628854E-01 0.3465919E-01 0.2213623E-01 0.1252297E-01 -0.02590203E+00 0.1601794338E+04
 1143081 0.9564032E-02  0.9147070E-04  0.8660152E-01 0.3477339E-01 0.2229293E-01 0.1248046E-01 -0.02619750E+00 0.1560047651E+04
 147637 0.1892060E-01  0.3579891E-03 0.8840576E-01 0.3555859E-01 0.2333267E-01 0.1222591E-01 -0.02771788E+00  0.1400222112E+04
